<LesHouchesEvents version="1.0">
<!--
File generated with HELAC-DIPOLES
-->
<init>
    2212    2212  6.500000E+03  6.500000E+03     0     0 13100 13100     3     1
  8.005576E-04  9.452607E-07  1.000000E+00    81
# SUMPDF   1   1   1   1   0  -1   0   1
</init>
<event>
     8    81 -1.000000E+00  1.732000000000000E+02  7.562391098139707E-03  1.076105351933744E-01
      -1   -1    0    0    0    0  0.000000000000000E+00  0.000000000000000E+00  1.248521569379321E+02  1.248521569379322E+02  0.000000000000000E+00  0.000000E+00  0.0000E+00
       1   -1    0    0    0    0  0.000000000000000E+00  0.000000000000000E+00 -1.143570690527603E+03  1.143570690527603E+03  0.000000000000000E+00  0.000000E+00  0.0000E+00
     -11    1    1    2    0    0  1.742721161473680E+01 -3.027894062664527E+01 -1.691785204393025E+02  1.727480643253875E+02  0.000000000000000E+00  0.000000E+00  0.0000E+00
      12    1    1    2    0    0 -3.106725488360418E+01  2.813321376056496E+01 -9.366031859578257E+01  1.026104639983855E+02  0.000000000000000E+00  0.000000E+00  0.0000E+00
      13    1    1    2    0    0  3.641979975551910E+00 -5.423160363849389E+01 -7.862759604726584E+00  5.491952148322804E+01  0.000000000000000E+00  0.000000E+00  0.0000E+00
     -14    1    1    2    0    0 -2.391033421771458E+01  2.275020784817251E+01  5.561275845063598E+00  3.346944619444356E+01  0.000000000000000E+00  0.000000E+00  0.0000E+00
       5    1    1    2    0    0 -7.657747215975931E+01  1.090023917198156E+02 -7.592103944681528E+02  7.708087011129981E+02  0.000000000000000E+00  0.000000E+00  0.0000E+00
      -5    1    1    2    0    0  1.104858696707894E+02 -7.537526906341397E+01  5.632183673229832E+00  1.338666503510927E+02  0.000000000000000E+00  0.000000E+00  0.0000E+00
# pdf  1.920802414429725E-02  1.759339523888620E-01  1.732000000000000E+02
# me  4  3 -2.338029820963497E-05  3.093716850248829E-01  7.070815201977932E-01  8.679899223804254E-07 -9.620718623021519E-08  8.158035151846082E-06 -7.107503618740318E-07  0.000000000000000E+00  0.000000000000000E+00 -8.337299412060786E-06  6.298383518070938E-07  6.729866106769670E-07 -8.268099500986155E-08  1.943184091279276E-05 -1.927457331376475E-06  0.000000000000000E+00  0.000000000000000E+00 -1.973639708653455E-05  2.066139007317167E-06
</event>
<event>
     8    81 -1.000000E+00  1.732000000000000E+02  7.562391098139707E-03  1.076105351933744E-01
      -1   -1    0    0    0    0  0.000000000000000E+00  0.000000000000000E+00  3.214450567466830E+01  3.214450567466814E+01  0.000000000000000E+00  0.000000E+00  0.0000E+00
       1   -1    0    0    0    0  0.000000000000000E+00  0.000000000000000E+00 -1.388594719529003E+03  1.388594719529003E+03  0.000000000000000E+00  0.000000E+00  0.0000E+00
     -11    1    1    2    0    0 -3.616117337515321E+01  5.695904235227246E+01 -1.821554438410177E+02  1.942487289185543E+02  0.000000000000000E+00  0.000000E+00  0.0000E+00
      12    1    1    2    0    0 -3.221148655763531E+01 -2.081394029748118E+00 -2.985155145537805E+02  3.002555986100310E+02  0.000000000000000E+00  0.000000E+00  0.0000E+00
      13    1    1    2    0    0  5.985856653801093E+01 -2.383949487172382E+01 -2.767228129370101E+02  2.841247696057067E+02  0.000000000000000E+00  0.000000E+00  0.0000E+00
     -14    1    1    2    0    0 -1.228550673418683E+01  1.696414081856624E+01 -3.004866329428986E+01  3.662837581986809E+01  0.000000000000000E+00  0.000000E+00  0.0000E+00
       5    1    1    2    0    0  5.375218332503862E+01  6.484283685619474E+01 -1.733373300929538E+02  1.927166850781770E+02  0.000000000000000E+00  0.000000E+00  0.0000E+00
      -5    1    1    2    0    0 -3.295258319607419E+01 -1.128451311255615E+02 -3.956704491352829E+02  4.127650671713340E+02  0.000000000000000E+00  0.000000E+00  0.0000E+00
# pdf  4.945308565333574E-03  2.136299568506158E-01  1.732000000000000E+02
# me  4  3 -2.372687837146115E-05  8.711317269009067E-01  7.661813597004570E-01  8.105958520487653E-08 -1.411019991224835E-08  4.635948025375229E-06 -6.622478246447538E-07  0.000000000000000E+00  0.000000000000000E+00 -4.399919494328760E-06  6.803782871802525E-07  6.095027234548132E-08 -9.227401326822315E-09  2.249657311627398E-06 -2.602673937658969E-07  0.000000000000000E+00  0.000000000000000E+00 -2.295276261837340E-06  2.793625610660900E-07
</event>
<event>
     8    81 -1.000000E+00  1.732000000000000E+02  7.562391098139707E-03  1.076105351933744E-01
      -1   -1    0    0    0    0  0.000000000000000E+00  0.000000000000000E+00  9.819403807196795E+02  9.819403807196795E+02  0.000000000000000E+00  0.000000E+00  0.0000E+00
       1   -1    0    0    0    0  0.000000000000000E+00  0.000000000000000E+00 -4.673061524466232E+01  4.673061524466220E+01  0.000000000000000E+00  0.000000E+00  0.0000E+00
     -11    1    1    2    0    0 -6.810367996061200E+01  7.848336900340639E+01  2.578899884338425E+02  2.780377610482247E+02  0.000000000000000E+00  0.000000E+00  0.0000E+00
      12    1    1    2    0    0  9.647651855796411E+00 -8.124817448831422E+00  7.258466196574257E+01  7.367240322935449E+01  0.000000000000000E+00  0.000000E+00  0.0000E+00
      13    1    1    2    0    0  2.919893039339613E+01  2.331777930052426E+01  5.095107927052286E+01  6.318472003940077E+01  0.000000000000000E+00  0.000000E+00  0.0000E+00
     -14    1    1    2    0    0 -1.391514275469364E+01 -3.825939539729423E+01  4.555119082456665E+01  6.109274522875924E+01  0.000000000000000E+00  0.000000E+00  0.0000E+00
       5    1    1    2    0    0 -5.558851932047405E+01 -3.475638993950756E+01  4.731372411025080E+01  8.084972857747107E+01  0.000000000000000E+00  0.000000E+00  0.0000E+00
      -5    1    1    2    0    0  9.876075978658714E+01 -2.066054551829745E+01  4.609191208700919E+02  4.718336378411313E+02  0.000000000000000E+00  0.000000E+00  0.0000E+00
# pdf  1.510677508799507E-01  7.189325422255737E-03  1.732000000000000E+02
# me  4  3 -1.979180388443892E-07  5.741806208791194E-01  5.982157521440989E-01  2.609222997053426E-09 -3.423440878334529E-10  5.510319399894127E-08 -5.578645762250975E-09  0.000000000000000E+00  0.000000000000000E+00 -5.731500128815466E-08  5.921896405530443E-09  3.065066664505474E-09 -4.068579718462529E-10  6.933124979905024E-08 -7.060933602507393E-09  0.000000000000000E+00  0.000000000000000E+00 -6.752434588396721E-08  7.273829845076538E-09
</event>
<event>
     8    81 -1.000000E+00  1.732000000000000E+02  7.562391098139707E-03  1.076105351933744E-01
      -1   -1    0    0    0    0  0.000000000000000E+00  0.000000000000000E+00  1.035788029080826E+02  1.035788029080825E+02  0.000000000000000E+00  0.000000E+00  0.0000E+00
       1   -1    0    0    0    0  0.000000000000000E+00  0.000000000000000E+00 -1.512896134198734E+03  1.512896134198734E+03  0.000000000000000E+00  0.000000E+00  0.0000E+00
     -11    1    1    2    0    0  1.649973555418462E+02  1.510703876596648E+02 -4.130212694109749E+02  4.697158272288650E+02  0.000000000000000E+00  0.000000E+00  0.0000E+00
      12    1    1    2    0    0  4.158675411883556E+01 -1.470770810294312E+00 -6.334255275478154E+01  7.578852336870790E+01  0.000000000000000E+00  0.000000E+00  0.0000E+00
      13    1    1    2    0    0 -4.684781438725470E+01 -5.941121992045279E+01 -1.699858535509969E+02  1.860634331962088E+02  0.000000000000000E+00  0.000000E+00  0.0000E+00
     -14    1    1    2    0    0 -7.953335894248386E+01 -1.872793338661141E+02 -2.336182248393231E+02  3.098008700037589E+02  0.000000000000000E+00  0.000000E+00  0.0000E+00
       5    1    1    2    0    0  1.561659232428110E+01  1.135435924485871E+02 -3.799358851932564E+02  3.968466986123696E+02  0.000000000000000E+00  0.000000E+00  0.0000E+00
      -5    1    1    2    0    0 -9.581952865522435E+01 -1.645265551139073E+01 -1.494135455413182E+02  1.782595846969061E+02  0.000000000000000E+00  0.000000E+00  0.0000E+00
# pdf  1.593520044739732E-02  2.327532514151898E-01  1.732000000000000E+02
# me  4  3 -5.930452280050235E-09  4.124254469121099E-01  2.377257256008428E-01  8.329064562907135E-11 -9.103611568442740E-12  1.049855412786125E-09 -9.380971695503806E-11  0.000000000000000E+00  0.000000000000000E+00 -9.967014367845185E-10  9.007557137753801E-11  7.935166774467381E-11 -8.781406524396036E-12  5.521931065343156E-10 -5.090552602995428E-11  0.000000000000000E+00  0.000000000000000E+00 -6.687370487088368E-10  4.687727921854537E-11
</event>
<event>
     8    81 -1.000000E+00  1.732000000000000E+02  7.562391098139707E-03  1.076105351933744E-01
      -1   -1    0    0    0    0  0.000000000000000E+00  0.000000000000000E+00  1.784479251826353E+02  1.784479251826353E+02  0.000000000000000E+00  0.000000E+00  0.0000E+00
       1   -1    0    0    0    0  0.000000000000000E+00  0.000000000000000E+00 -6.451698959338557E+02  6.451698959338556E+02  0.000000000000000E+00  0.000000E+00  0.0000E+00
     -11    1    1    2    0    0 -3.635986171520986E+01  1.540445973556368E+01  5.077462202535508E+01  6.432261783782951E+01  0.000000000000000E+00  0.000000E+00  0.0000E+00
      12    1    1    2    0    0  3.515950649447906E+01 -2.134902039298000E+01  2.545562041366594E+01  4.837313489241564E+01  0.000000000000000E+00  0.000000E+00  0.0000E+00
      13    1    1    2    0    0 -4.366870299322453E+01 -5.836761804204760E+01 -3.474512130893336E+02  3.550156051982255E+02  0.000000000000000E+00  0.000000E+00  0.0000E+00
     -14    1    1    2    0    0 -7.154738989017592E+01 -1.806066772382508E+01 -1.396284906016033E+02  1.579282498681261E+02  0.000000000000000E+00  0.000000E+00  0.0000E+00
       5    1    1    2    0    0  7.691382770622720E+01  9.295442356534241E+01  9.332680928698906E+00  1.210097545080775E+02  0.000000000000000E+00  0.000000E+00  0.0000E+00
      -5    1    1    2    0    0  3.950262039790405E+01 -1.058157714205342E+01 -6.520519042800341E+01  7.696845881181669E+01  0.000000000000000E+00  0.000000E+00  0.0000E+00
# pdf  2.745352695117466E-02  9.925690706674703E-02  1.732000000000000E+02
# me  4  3 -4.260520794307710E-08  2.100394869080815E-01  1.445820037269130E-01  3.015575779751239E-10 -3.469296071945628E-11  1.926152031710746E-09 -1.830109209655647E-10  0.000000000000000E+00  0.000000000000000E+00 -1.731275955534090E-09  1.448569494099811E-10  3.114440701657356E-10 -3.619468394108870E-11  1.614345910664112E-09 -1.530489929477540E-10  0.000000000000000E+00  0.000000000000000E+00 -1.849609076723715E-09  1.146776861985643E-10
</event>
</LesHouchesEvents>
