<LesHouchesEvents version="1.0">
<!--
File generated with HELAC-DIPOLES
-->
<init>
    2212    2212  6.500000E+03  6.500000E+03     0     0 13100 13100     3     1
  2.113900E+00  3.225948E-03  1.000000E+00    81
# SUMPDF   1   0   0
# DIPMAP   1   9  1  7  1  8  1  9  2  7  2  8  2  9  7  8  7  9  8  9
# JETALGO  -1   2  5.000000E+00  4.000000E-01  F  5.000000E+01
</init>
<event>
     9    81  1.257470E+00  1.732000000000000E+02  7.562391098139707E-03  1.076105351933744E-01
      21   -1    0    0    0    0  0.000000000000000E+00  0.000000000000000E+00  9.850353991995069E+02  9.850353991995069E+02  0.000000000000000E+00  0.000000E+00  0.0000E+00
      21   -1    0    0    0    0  0.000000000000000E+00  0.000000000000000E+00 -3.528806916769989E+01  3.528806916769990E+01  0.000000000000000E+00  0.000000E+00  0.0000E+00
     -11    1    1    2    0    0 -4.367202140991996E+01  1.252623667204481E+01  2.513017087278346E+02  2.553756074270250E+02  0.000000000000000E+00  0.000000E+00  0.0000E+00
      12    1    1    2    0    0  2.645620577815188E+01 -1.402904735666973E+01  3.592133145338563E+02  3.604593601674269E+02  0.000000000000000E+00  0.000000E+00  0.0000E+00
      13    1    1    2    0    0 -3.143175942243230E+01  2.860359240102313E+01  4.081731870201258E+01  5.892516020050515E+01  0.000000000000000E+00  0.000000E+00  0.0000E+00
     -14    1    1    2    0    0 -8.241639360384683E+00  3.200979485221196E+01  2.360278685251064E+02  2.383310854805395E+02  0.000000000000000E+00  0.000000E+00  0.0000E+00
       5    1    1    2    0    0  3.664725672848966E+01 -2.129126047373300E+01  4.125883626455657E+01  5.914922457809284E+01  0.000000000000000E+00  0.000000E+00  0.0000E+00
      -5    1    1    2    0    0  2.002424149583396E+01 -3.662109775182559E+01  1.955100947467808E+01  4.609031372762824E+01  0.000000000000000E+00  0.000000E+00  0.0000E+00
      21    1    1    2    0    0  2.177161902614473E-01 -1.198218343051581E+00  1.577273803762360E+00  1.992716785988972E+00  0.000000000000000E+00  0.000000E+00  0.0000E+00
# pdf  1.515439075691549E-01  5.428933718107677E-03  1.732000000000000E+02
# me  4.439489635521359E-01  4  3  9.705363382992204E-01  1.732000000000000E+02   1   4   3   6   8   9  5.473410078779409E-02  1.340968236660781E-01  3.178987009042869E-02  3.059665802027837E-01  1.732000000000000E+02  1.732000000000000E+02  1.732000000000000E+02  1.732000000000000E+02
# jet  0  0  0
</event>
<event>
     9    81  1.000000E+00  1.732000000000000E+02  7.562391098139707E-03  1.076105351933744E-01
      21   -1    0    0    0    0  0.000000000000000E+00  0.000000000000000E+00  2.056536730017367E+02  2.056536730017367E+02  0.000000000000000E+00  0.000000E+00  0.0000E+00
      21   -1    0    0    0    0  0.000000000000000E+00  0.000000000000000E+00 -5.533905212071328E+02  5.533905212071328E+02  0.000000000000000E+00  0.000000E+00  0.0000E+00
     -11    1    1    2    0    0 -7.506388216413980E+01  2.633590444430930E+01 -8.489043792221977E+01  1.163380965938411E+02  0.000000000000000E+00  0.000000E+00  0.0000E+00
      12    1    1    2    0    0 -7.987178381230810E+01  2.001346417243417E+01 -2.681338179232389E+02  2.804920407277789E+02  0.000000000000000E+00  0.000000E+00  0.0000E+00
      13    1    1    2    0    0  5.794366402062741E+01 -4.166933517587436E+01  7.348575879575634E-01  7.137465733584497E+01  0.000000000000000E+00  0.000000E+00  0.0000E+00
     -14    1    1    2    0    0  3.856253196827663E+01 -9.460834171189526E+01  8.382931167138386E+01  1.321558197302605E+02  0.000000000000000E+00  0.000000E+00  0.0000E+00
       5    1    1    2    0    0  2.111719232916562E+01  5.329979180389332E+01 -8.574878259628464E+01  1.031487146548624E+02  0.000000000000000E+00  0.000000E+00  0.0000E+00
      -5    1    1    2    0    0  3.749233463392738E+01  3.764660822893551E+01  7.958580702024125E+00  5.372412190288433E+01  0.000000000000000E+00  0.000000E+00  0.0000E+00
      21    1    1    2    0    0 -1.800569755491413E-01 -1.018091761802641E+00 -1.486559725018870E+00  1.810743263398345E+00  0.000000000000000E+00  0.000000E+00  0.0000E+00
# pdf  3.163902661565179E-02  8.513700326263582E-02  1.732000000000000E+02
# me  1.265338693565509E-01  4  3  5.615651925909139E-01  1.732000000000000E+02   1   4   3   6   8   9  8.135110196082360E-02  3.333874434320803E-01  1.917273540600843E-02  1.120042435450726E-03  1.732000000000000E+02  1.732000000000000E+02  1.732000000000000E+02  1.732000000000000E+02
# jet  0  0  0
</event>
<event>
     9    81  1.000000E+00  1.732000000000000E+02  7.562391098139707E-03  1.076105351933744E-01
      21   -1    0    0    0    0  0.000000000000000E+00  0.000000000000000E+00  2.899421933612973E+02  2.899421933612973E+02  0.000000000000000E+00  0.000000E+00  0.0000E+00
      21   -1    0    0    0    0  0.000000000000000E+00  0.000000000000000E+00 -1.221992153775854E+02  1.221992153775854E+02  0.000000000000000E+00  0.000000E+00  0.0000E+00
     -11    1    1    2    0    0 -5.721516788351905E+01 -7.793989416848711E+00  5.524258117610428E+01  7.991285554882701E+01  0.000000000000000E+00  0.000000E+00  0.0000E+00
      12    1    1    2    0    0  1.995735465210095E+01 -6.463258015777401E+00 -6.984275014413539E+00  2.210994813121929E+01  0.000000000000000E+00  0.000000E+00  0.0000E+00
      13    1    1    2    0    0 -6.303210820568577E+01 -4.125631391405042E+01  3.238396086429697E+01  8.199909160404320E+01  0.000000000000000E+00  0.000000E+00  0.0000E+00
     -14    1    1    2    0    0  1.066202353654481E+01  1.390104469969981E+01 -1.938779079176276E+00  1.762602206837207E+01  0.000000000000000E+00  0.000000E+00  0.0000E+00
       5    1    1    2    0    0  1.938154428129161E+01  6.427952065511803E+01  8.861188087719459E+01  1.111735870923195E+02  0.000000000000000E+00  0.000000E+00  0.0000E+00
      -5    1    1    2    0    0  7.091170917663416E+01 -1.365331709001917E+01 -2.171114623391760E+01  7.540727708054911E+01  0.000000000000000E+00  0.000000E+00  0.0000E+00
      21    1    1    2    0    0 -6.653555573667127E-01 -9.013686918122133E+00  2.213875539362342E+01  2.391262721355257E+01  0.000000000000000E+00  0.000000E+00  0.0000E+00
# pdf  4.460649128635343E-02  1.879987928885930E-02  1.732000000000000E+02
# me  2.22899727425476E-08  4  3  8.677595460716707E-08  1.732000000000000E+02   1   1   3  6.448598186461949E-08  1.732000000000000E+02
# jet  0  0  0
</event>
<event>
     9    81  1.000000E+00  1.732000000000000E+02  7.562391098139707E-03  1.076105351933744E-01
      21   -1    0    0    0    0  0.000000000000000E+00  0.000000000000000E+00  1.896964142652354E+02  1.896964142652354E+02  0.000000000000000E+00  0.000000E+00  0.0000E+00
      21   -1    0    0    0    0  0.000000000000000E+00  0.000000000000000E+00 -8.250828909848722E+02  8.250828909848721E+02  0.000000000000000E+00  0.000000E+00  0.0000E+00
     -11    1    1    2    0    0  1.082343500495487E+01  4.575447533263393E+01  1.904957708744917E+01  5.072972644792949E+01  0.000000000000000E+00  0.000000E+00  0.0000E+00
      12    1    1    2    0    0 -2.444523508216487E+01 -1.867993314316655E+01 -1.880385805171033E+01  3.605682318347455E+01  0.000000000000000E+00  0.000000E+00  0.0000E+00
      13    1    1    2    0    0  5.859833766398307E+01 -5.151531798458593E+01 -1.663605308524793E+02  1.837482500312694E+02  0.000000000000000E+00  0.000000E+00  0.0000E+00
     -14    1    1    2    0    0  3.768495711708351E+01 -4.484820652316940E+01 -3.973417925435557E+02  4.016366737774171E+02  0.000000000000000E+00  0.000000E+00  0.0000E+00
       5    1    1    2    0    0 -3.759813213465170E+01  6.438907740704357E+01  8.390286886153568E+00  7.503312430771450E+01  0.000000000000000E+00  0.000000E+00  0.0000E+00
      -5    1    1    2    0    0  3.166597520113830E+01 -8.941854529309265E+01 -1.071044968535495E+02  1.430726510344446E+02  0.000000000000000E+00  0.000000E+00  0.0000E+00
      21    1    1    2    0    0 -7.672933777034321E+01  9.431845020433704E+01  2.678433760805528E+01  1.245020564678580E+02  0.000000000000000E+00  0.000000E+00  0.0000E+00
# pdf  2.918406373311314E-02  1.269358293822880E-01  1.732000000000000E+02
# me  8.871877469972406E-04  4  3  1.159791730431775E-03  1.732000000000000E+02   1   1   8  2.726039834345343E-04  1.732000000000000E+02
# jet  7  9  5
</event>
<event>
     9    81  1.000000E+00  1.732000000000000E+02  7.562391098139707E-03  1.076105351933744E-01
      21   -1    0    0    0    0  0.000000000000000E+00  0.000000000000000E+00  3.418987110881756E+02  3.418987110881757E+02  0.000000000000000E+00  0.000000E+00  0.0000E+00
      21   -1    0    0    0    0  0.000000000000000E+00  0.000000000000000E+00 -2.716845532303863E+02  2.716845532303863E+02  0.000000000000000E+00  0.000000E+00  0.0000E+00
     -11    1    1    2    0    0 -1.146423919980488E+02  9.329782154803774E+01  7.019843358934828E+01  1.636312367093824E+02  0.000000000000000E+00  0.000000E+00  0.0000E+00
      12    1    1    2    0    0 -2.156647072966395E+01  5.416271667845507E-01 -1.667608215611478E+01  2.726715489006399E+01  0.000000000000000E+00  0.000000E+00  0.0000E+00
      13    1    1    2    0    0  6.691377397584205E+01 -3.633650330154578E+01 -7.948804883167131E+01  1.100733597513017E+02  0.000000000000000E+00  0.000000E+00  0.0000E+00
     -14    1    1    2    0    0 -1.889763017631964E+01 -3.720226572069077E+01 -3.352624747941319E+01  5.352698638149442E+01  0.000000000000000E+00  0.000000E+00  0.0000E+00
       5    1    1    2    0    0 -9.692455355084888E+00  5.989519194870810E+01  1.169252811917838E+02  1.317304030630766E+02  0.000000000000000E+00  0.000000E+00  0.0000E+00
      -5    1    1    2    0    0  9.773023686311896E+01 -8.000335372480620E+01  1.240986958904503E+01  1.269083947883469E+02  0.000000000000000E+00  0.000000E+00  0.0000E+00
      21    1    1    2    0    0  1.549374201563012E-01 -1.925179164876454E-01  3.709519548115377E-01  4.457287348959402E-01  0.000000000000000E+00  0.000000E+00  0.0000E+00
# pdf  5.259980170587317E-02  4.179762357390557E-02  1.732000000000000E+02
# me  6.634285071106308E-02  4  3  6.471482268704729E-01  1.732000000000000E+02   1   4   3   6   8   9  3.963432618799584E-01  5.575687738373056E-02  1.397298090486405E-02  1.147322559908568E-01  1.732000000000000E+02  1.732000000000000E+02  1.732000000000000E+02  1.732000000000000E+02
# jet  0  0  0
</event>
</LesHouchesEvents>
