<LesHouchesEvents version="1.0">
<!--
File generated with HELAC-1LOOP_v2.2 
Type: LO+V
-->
<init>
    2212    2212  6.500000E+03  6.500000E+03     0     0 13100 13100     3     1
  4.929598E-02  3.602131E-05  1.000000E+00    81
# NORM  100000  4.924946E-02  3.652220E-05
# SUMPDF   2   2  -2   4  -4
</init>
<event>
     8    81  1.000000E+00  1.732000000000000E+02  7.562391098139707E-03  1.076105351933744E-01
       2   -1    0    0  102    0 -0.000000000000000E+00 -0.000000000000000E+00  2.646010286146550E+02  2.646010286146550E+02  0.000000000000000E+00  0.000000E+00  9.0000E+00
      -2   -1    0    0    0  101 -0.000000000000000E+00 -0.000000000000000E+00 -2.646010286146550E+02  2.646010286146550E+02  0.000000000000000E+00  0.000000E+00  9.0000E+00
     -11    1    1    2    0    0  6.054606320503604E+01 -1.685470494413715E+01  3.864156188832906E+01  7.377721296953217E+01  0.000000000000000E+00  0.000000E+00  9.0000E+00
      12    1    1    2    0    0  4.985474269931384E+01 -6.758375032739607E-01 -4.170714121941270E+01  6.500336725617875E+01  0.000000000000000E+00  0.000000E+00  9.0000E+00
      13    1    1    2    0    0 -2.791603113615005E+01 -5.609298211718191E+01 -5.643322062448840E+01  8.432340023531529E+01  0.000000000000000E+00  0.000000E+00  9.0000E+00
     -14    1    1    2    0    0  1.120258848585522E+01  5.796542799145527E+00  1.487800997711521E+01  1.950520643533109E+01  0.000000000000000E+00  0.000000E+00  9.0000E+00
       5    1    1    2  102    0  5.635106866964585E+01  6.924660328286669E+01  9.302361108556708E+01  1.289338094753456E+02  0.000000000000000E+00  0.000000E+00  9.0000E+00
      -5    1    1    2    0  101 -1.500384319237009E+02 -1.419621517419195E+00 -4.840282110711025E+01  1.576590608576071E+02  0.000000000000000E+00  0.000000E+00  9.0000E+00
#   5.991841322300086E-08       2       1       2
#   1.680676633836327E+01  1.570778986608139E+01  0.000000000000000E+00  0.000000000000000E+00  0.000000000000000E+00  0.000000000000000E+00  1.680676633836327E+01 -1.570778986608139E+01
#   1.574590117350844E+01 -1.677106596085698E+01  0.000000000000000E+00  0.000000000000000E+00  0.000000000000000E+00  0.000000000000000E+00 -1.574590117350844E+01 -1.677106596085698E+01
#   2.836029015867819E+00 -1.021644332823400E+01 -4.311965064967227E-03 -5.927531736579770E+00  4.311965064967227E-03 -5.927531736579770E+00  2.836029015867819E+00  1.021644332823400E+01
#   7.552179461507465E+00  7.048056033884540E+00 -3.483711478749574E+00 -3.340655679592631E+00 -3.483711478749574E+00  3.340655679592631E+00 -7.552179461507465E+00  7.048056033884540E+00
#   1.116607274129724E+01  4.009418959882144E+00  3.812344293672735E+00 -3.654614972514592E+00  3.812344293672735E+00  3.654614972514592E+00 -1.116607274129724E+01  4.009418959882144E+00
#   4.347900209881507E+00  3.934333511200931E+00  7.533386037642805E-01  2.014864116086832E+00 -7.533386037642805E-01  2.014864116086832E+00  4.347900209881507E+00 -3.934333511200931E+00
#  -2.815250283140899E+00 -5.290043878178475E+00  1.461868648317244E+01  2.872529559051410E+00  1.461868648317244E+01 -2.872529559051410E+00  2.815250283140899E+00 -5.290043878178475E+00
#   1.045131160926618E+01  1.622510293181043E-01 -1.435037553853482E+01 -3.586138142053703E-01  1.435037553853482E+01 -3.586138142053703E-01  1.045131160926618E+01 -1.622510293181043E-01
# pdf  1.167239198757435E-01  1.419699662812817E-02  1.732000000000000E+02
</event>
<event>
     8    81  1.000000E+00  1.732000000000000E+02  7.562391098139707E-03  1.076105351933744E-01
       2   -1    0    0  102    0 -0.000000000000000E+00 -0.000000000000000E+00  2.738400405853773E+02  2.738400405853773E+02  0.000000000000000E+00  0.000000E+00  9.0000E+00
      -2   -1    0    0    0  101 -0.000000000000000E+00 -0.000000000000000E+00 -2.738400405853773E+02  2.738400405853773E+02  0.000000000000000E+00  0.000000E+00  9.0000E+00
     -11    1    1    2    0    0 -2.088694245637247E+01  9.998192278088686E+01 -2.142618529889788E+01  1.043634546409889E+02  0.000000000000000E+00  0.000000E+00  9.0000E+00
      12    1    1    2    0    0  2.045127856548693E+01 -2.787604509213494E+00 -1.984572766827208E+01  2.863351952775196E+01  0.000000000000000E+00  0.000000E+00  9.0000E+00
      13    1    1    2    0    0 -2.379583269011658E+01 -1.018704141124804E+02 -2.042656211459430E+00  1.046326687476835E+02  0.000000000000000E+00  0.000000E+00  9.0000E+00
     -14    1    1    2    0    0  1.153510411274306E+01 -1.887912378166779E+01  4.204397818389526E+01  4.750974682297535E+01  0.000000000000000E+00  0.000000E+00  9.0000E+00
       5    1    1    2  102    0 -4.898624748580779E+01  1.136899271529962E+02  6.105189377095038E+01  1.380303796698893E+02  0.000000000000000E+00  0.000000E+00  9.0000E+00
      -5    1    1    2    0  101  6.168263995406684E+01 -9.0134707530521E+01 -5.978130277621624E+01  1.245103117614654E+02  0.000000000000000E+00  0.000000E+00  9.0000E+00
#   5.545789138572718E-09       1       2
#  -2.276451156547422E+01 -5.427439023715072E+00  0.000000000000000E+00  0.000000000000000E+00  0.000000000000000E+00  0.000000000000000E+00 -2.276451156547422E+01  5.427439023715072E+00
#  -1.128235571802671E+01 -2.050337851727526E+01  0.000000000000000E+00  0.000000000000000E+00  0.000000000000000E+00  0.000000000000000E+00  1.128235571802671E+01 -2.050337851727526E+01
#   8.443740415570078E+00  3.411820208709635E+00 -6.239465911176429E+00  9.319801772739272E+00  6.239465911176429E+00  9.319801772739272E+00  8.443740415570078E+00 -3.411820208709635E+00
#   2.223517168887872E+00  6.598122353797701E+00 -5.586063100522093E-01 -2.911314282218553E+00 -5.586063100522093E-01  2.911314282218553E+00 -2.223517168887872E+00  6.598122353797701E+00
#  -3.322383296974722E+00  9.779421976125498E+00  8.597816690716700E+00  5.354209623189725E+00  8.597816690716700E+00 -5.354209623189725E+00  3.322383296974722E+00  9.779421976125498E+00
#   3.742536446881497E+00  8.691786119701419E+00  2.314407955472954E+00  3.305819939494498E-01 -2.314407955472954E+00  3.305819939494498E-01  3.742536446881497E+00 -8.691786119701419E+00
#  -5.219759683839126E+00 -7.052134055866113E+00  7.093672485484979E+00 -1.219680630778045E+01  7.093672485484979E+00  1.219680630778045E+01  5.219759683839126E+00 -7.052134055866113E+00
#  -8.033977575229169E+00 -4.292007758194624E-01 -8.253530232387988E+00  1.077825835841483E+01  8.253530232387988E+00  1.077825835841483E+01 -8.033977575229169E+00  4.292007758194624E-01
# pdf  1.672752816829565E-01  1.061048944860178E-02  1.732000000000000E+02
</event>
<event>
     8    81  1.000000E+00  1.732000000000000E+02  7.562391098139707E-03  1.076105351933744E-01
       2   -1    0    0  102    0 -0.000000000000000E+00 -0.000000000000000E+00  4.965423097654338E+02  4.965423097654338E+02  0.000000000000000E+00  0.000000E+00  9.0000E+00
      -2   -1    0    0    0  101 -0.000000000000000E+00 -0.000000000000000E+00 -4.965423097654338E+02  4.965423097654338E+02  0.000000000000000E+00  0.000000E+00  9.0000E+00
     -11    1    1    2    0    0 -1.507038599793917E+01 -4.134389742679148E+01  5.215641153089727E+00  4.431294733147119E+01  0.000000000000000E+00  0.000000E+00  9.0000E+00
      12    1    1    2    0    0  1.101290631495708E+02 -1.780715962219871E+02  1.035383586739313E+02  2.335767446646609E+02  0.000000000000000E+00  0.000000E+00  9.0000E+00
      13    1    1    2    0    0  4.953313625500358E+01  4.700657958466884E+00  6.755986197849475E+01  8.390448571472510E+01  0.000000000000000E+00  0.000000E+00  9.0000E+00
     -14    1    1    2    0    0  4.614438946615501E+01 -8.633853043387015E+01  5.153990162183226E+01  1.106345695335444E+02  0.000000000000000E+00  0.000000E+00  9.0000E+00
       5    1    1    2  102    0 -1.412972111492062E+02  3.245495534797291E+02 -2.751336308574478E+02  4.483255841140870E+02  0.000000000000000E+00  0.000000E+00  9.0000E+00
      -5    1    1    2    0  101 -4.943899172358401E+01 -2.349618735554733E+01  4.727986743009981E+01  7.233028817237910E+01  0.000000000000000E+00  0.000000E+00  9.0000E+00
#   7.057465892491524E-14       2       1       2
#  -2.633880703019750E+01  1.730178787746765E+01  0.000000000000000E+00 -0.000000000000000E+00  0.000000000000000E+00  0.000000000000000E+00 -2.633880703019750E+01 -1.730178787746765E+01
#  -3.712989684622173E-01 -3.151105768784803E+01  0.000000000000000E+00  0.000000000000000E+00  0.000000000000000E+00  0.000000000000000E+00  3.712989684622173E-01 -3.151105768784803E+01
#   4.165373960116309E+00  5.672587439338938E+00  3.467756402655338E+00 -5.203073294719610E+00 -3.467756402655338E+00 -5.203073294719610E+00  4.165373960116309E+00 -5.672587439338938E+00
#   6.880623287714310E+00  9.093701620533473E+00  6.625531069227441E+00 -1.712359312145947E+01  6.625531069227441E+00  1.712359312145947E+01 -6.880623287714310E+00  9.093701620533473E+00
#  -4.031481198869907E+00 -3.029572236947209E-01  1.230471921919742E+01 -2.413143798732013E-01  1.230471921919742E+01  2.413143798732013E-01  4.031481198869907E+00 -3.029572236947209E-01
#  -6.214471852711855E+00 -1.111552116399536E+01 -7.685924689156048E+00  1.457037553861511E-01  7.685924689156048E+00  1.457037553861511E-01 -6.214471852711855E+00  1.111552116399536E+01
#   2.447341043461729E+01 -1.115846748753164E+01  9.785624587830181E+00  8.799630940141325E+00  9.785624587830181E+00 -8.799630940141325E+00 -2.447341043461729E+01 -1.115846748753164E+01
#  -9.439149592269125E+00  5.523822098623787E+00  4.986623372518048E+00 -4.289616334079491E-01 -4.986623372518048E+00 -4.289616334079491E-01 -9.439149592269125E+00 -5.523822098623787E+00
# pdf  2.148375587798013E-01  2.716286643561696E-02  1.732000000000000E+02
</event>
<event>
     8    81  1.000000E+00  1.732000000000000E+02  7.562391098139707E-03  1.076105351933744E-01
       2   -1    0    0  102    0 -0.000000000000000E+00 -0.000000000000000E+00  3.275323093261795E+02  3.275323093261795E+02  0.000000000000000E+00  0.000000E+00  9.0000E+00
      -2   -1    0    0    0  101 -0.000000000000000E+00 -0.000000000000000E+00 -3.275323093261795E+02  3.275323093261795E+02  0.000000000000000E+00  0.000000E+00  9.0000E+00
     -11    1    1    2    0    0  1.221096657186036E+01 -4.745910299567930E+01 -7.530227724104630E+01  8.984379288220742E+01  0.000000000000000E+00  0.000000E+00  9.0000E+00
      12    1    1    2    0    0  1.748950160581043E+01  4.032837517196029E+01 -1.756072919939052E+02  1.810253615156249E+02  0.000000000000000E+00  0.000000E+00  9.0000E+00
      13    1    1    2    0    0  3.596480426676811E+01  2.583009647926391E+01  6.949905754652511E+01  8.240618926955810E+01  0.000000000000000E+00  0.000000E+00  9.0000E+00
     -14    1    1    2    0    0 -4.223018248037150E+01  6.656551516644734E+01  1.150736609162710E+02  1.394858543307274E+02  0.000000000000000E+00  0.000000E+00  9.0000E+00
       5    1    1    2  102    0  3.032847284884202E+01 -4.580193855753968E+01 -1.516947519739676E+01  5.698900612167248E+01  0.000000000000000E+00  0.000000E+00  9.0000E+00
      -5    1    1    2    0  101 -5.376356281290941E+01 -3.946294526445256E+01  8.150632596955214E+01  1.053144145325687E+02  0.000000000000000E+00  0.000000E+00  9.0000E+00
#   2.444325396978848E-07       1       2
#   1.780056774502781E+01 -1.839033459747360E+01  0.000000000000000E+00  0.000000000000000E+00  0.000000000000000E+00  0.000000000000000E+00  1.780056774502781E+01  1.839033459747360E+01
#   5.931047979625745E-01  2.558735713884873E+01  0.000000000000000E+00  0.000000000000000E+00  0.000000000000000E+00  0.000000000000000E+00 -5.931047979625745E-01  2.558735713884873E+01
#   3.480390510735563E+00 -1.558331650818582E+00 -2.163329525635485E+00 -1.266752049482327E+01  2.163329525635485E+00 -1.266752049482327E+01  3.480390510735563E+00  1.558331650818582E+00
#  -2.015904645790378E-02  1.888470934704520E+01 -2.134513103033411E+00 -9.283982629768525E-01 -2.134513103033411E+00  9.283982629768525E-01  2.015904645790378E-02  1.888470934704520E+01
#   3.152680309620027E+00 -1.722712566961524E+00 -5.337181018892862E+00  1.110944398193055E+01 -5.337181018892862E+00 -1.110944398193055E+01 -3.152680309620027E+00 -1.722712566961524E+00
#   1.299328290269413E+01  9.259271821129065E+00 -4.576756463843193E+00  1.861583649779411E+00  4.576756463843193E+00  1.861583649779411E+00  1.299328290269413E+01 -9.259271821129065E+00
#   8.307748229444760E+00  1.771948271035780E+00 -2.367048857629900E+00 -6.018023814332135E+00 -2.367048857629900E+00  6.018023814332135E+00 -8.307748229444760E+00  1.771948271035780E+00
#  -2.157518995023317E+00  1.349688305825588E+01  3.471898589173435E+00 -3.428411986548889E+00 -3.471898589173435E+00 -3.428411986548889E+00 -2.157518995023317E+00 -1.349688305825588E+01
# pdf  5.097246130942113E-02  4.981337602858396E-02  1.732000000000000E+02
</event>
</LesHouchesEvents>
