<LesHouchesEvents version="1.0">
<!--
File generated with HELAC-1LOOP_v2.2
Type: LO+V
-->
<init>
    2212    2212  6.500000E+03  6.500000E+03     0     0 13100 13100     3     1
  3.826745E-02  2.872190E-05  1.000000E+00    81
# NORM  100000  3.823565E-02  2.912651E-05
# SUMPDF   2   1  -1   3  -3
</init>
<event>
     8    81  1.175711175034100E+00  1.732000000000000E+02  7.562391098139707E-03  1.076105351933744E-01
     1    -1     0     0   102     0  0.000000000000000E+00  0.000000000000000E+00  2.246780682119688E+02  2.246780682119688E+02  0.000000000000000E+00  0.000000E+00  9.0000E+00
    -1    -1     0     0     0   101  0.000000000000000E+00  0.000000000000000E+00 -3.134691289309633E+02  3.134691289309632E+02  0.000000000000000E+00  0.000000E+00  9.0000E+00
   -11     1     1     2     0     0  6.899798127778996E+01  1.516911787512079E+00 -3.292758415823712E+00  6.909315957290073E+01  0.000000000000000E+00  0.000000E+00  9.0000E+00
    12     1     1     2     0     0 -8.245477962615922E+00  2.520972310754050E+01 -2.886943365541083E+01  3.920411005972478E+01  0.000000000000000E+00  0.000000E+00  9.0000E+00
    13     1     1     2     0     0 -2.423645306961609E+01 -3.102344833580188E+01 -2.967607193327067E+01  4.930039806561937E+01  0.000000000000000E+00  0.000000E+00  9.0000E+00
   -14     1     1     2     0     0 -3.651194989275776E+01  3.620839519595335E+01  1.250862918312826E+01  5.292103713721602E+01  0.000000000000000E+00  0.000000E+00  9.0000E+00
     5     1     1     2   102     0  7.552081969537673E+01 -5.463304532819471E+01 -1.590642040852266E+02  1.843626449977348E+02  0.000000000000000E+00  0.000000E+00  9.0000E+00
    -5     1     1     2     0   101 -7.552492004817692E+01  2.272146357299066E+01  1.196027781876091E+02  1.432658473097362E+02  0.000000000000000E+00  0.000000E+00  9.0000E+00
# pdf  3.456585664799519E-02  4.822601983553280E-02  1.732000000000000E+02
# me  4  2  6.586467403387954E-07  4  3  1.157315926773096E-07 -3.683918678827100E-06  6.786844660859588E-07 -3.008127237639317E-08
</event>
<event>
     8    81  1.173294414273079E+00  1.732000000000000E+02  7.562391098139707E-03  1.076105351933744E-01
     1    -1     0     0   102     0  0.000000000000000E+00  0.000000000000000E+00  4.846892872878836E+02  4.846892872878837E+02  0.000000000000000E+00  0.000000E+00  9.0000E+00
    -1    -1     0     0     0   101  0.000000000000000E+00  0.000000000000000E+00 -3.847076786670693E+02  3.847076786670693E+02  0.000000000000000E+00  0.000000E+00  9.0000E+00
   -11     1     1     2     0     0 -1.253310181533373E+02 -7.311070016170710E+01  1.215036806708752E+01  1.456044986724411E+02  0.000000000000000E+00  0.000000E+00  9.0000E+00
    12     1     1     2     0     0  1.266733132411321E+01 -1.275785901466760E+01  2.557336544271700E+00  1.815941132618738E+01  0.000000000000000E+00  0.000000E+00  9.0000E+00
    13     1     1     2     0     0  7.789697976488925E+01  9.578483697289492E+01 -1.468536560125228E+00  1.234699601119400E+02  0.000000000000000E+00  0.000000E+00  9.0000E+00
   -14     1     1     2     0     0 -7.477171390473231E+00  8.684944894607149E+01  3.094040915420901E+01  9.249888536014178E+01  0.000000000000000E+00  0.000000E+00  9.0000E+00
     5     1     1     2   102     0 -1.064136005755370E+02 -2.294972008047290E+02 -5.888324200746027E+01  2.597307370219497E+02  0.000000000000000E+00  0.000000E+00  9.0000E+00
    -5     1     1     2     0   101  1.486574790303451E+02  1.327314740621373E+02  1.146852734228316E+02  2.299334734622929E+02  0.000000000000000E+00  0.000000E+00  9.0000E+00
# pdf  7.456758265967439E-02  5.918579671801065E-02  1.732000000000000E+02
# me  4  2  9.404757596083406E-09  4  3  1.629791958993560E-09 -6.476318714960301E-08  1.08683154808454E-08 -4.295277840991483E-10
</event>
<event>
     8    81  9.734929505410694E-02  1.732000000000000E+02  7.562391098139707E-03  1.076105351933744E-01
     1    -1     0     0   102     0  0.000000000000000E+00  0.000000000000000E+00  9.210160672358004E+02  9.210160672358004E+02  0.000000000000000E+00  0.000000E+00  9.0000E+00
    -1    -1     0     0     0   101  0.000000000000000E+00  0.000000000000000E+00 -8.473878297062069E+01  8.473878297062068E+01  0.000000000000000E+00  0.000000E+00  9.0000E+00
   -11     1     1     2     0     0 -3.306110429548648E+01 -4.777459394150965E+01  3.298093875098959E+01  6.680711612103677E+01  0.000000000000000E+00  0.000000E+00  9.0000E+00
    12     1     1     2     0     0 -2.230276099158802E+01 -1.282825488643152E+02  2.408622662102882E+02  2.738036829097247E+02  0.000000000000000E+00  0.000000E+00  9.0000E+00
    13     1     1     2     0     0  1.876437780310881E+01  2.539168039003414E+01 -2.537573597463805E-01  3.157378184768292E+01  0.000000000000000E+00  0.000000E+00  9.0000E+00
   -14     1     1     2     0     0  6.414444983870978E+01  1.136516378493464E+02  1.886378202671643E+02  2.293805407311107E+02  0.000000000000000E+00  0.000000E+00  9.0000E+00
     5     1     1     2   102     0  2.546753889039879E+01 -3.672757656484279E+01  2.269775771057988E+02  2.313359698064250E+02  0.000000000000000E+00  0.000000E+00  9.0000E+00
    -5     1     1     2     0   101 -5.301250124514287E+01  7.374140113128718E+01  1.470724392906851E+02  1.728537587904408E+02  0.000000000000000E+00  0.000000E+00  9.0000E+00
# pdf  1.416947795747385E-01  1.303673584163395E-02  1.732000000000000E+02
# me  4  2  5.25605763534541E-08  4  3 -4.744384129780778E-08 -2.862723213787574E-07  4.791384393059753E-08 -2.400511407276317E-09
</event>
<event>
     8    81  1.389167774417559E+00  1.732000000000000E+02  7.562391098139707E-03  1.076105351933744E-01
     1    -1     0     0   102     0  0.000000000000000E+00  0.000000000000000E+00  2.824114475299309E+02  2.824114475299309E+02  0.000000000000000E+00  0.000000E+00  9.0000E+00
    -1    -1     0     0     0   101  0.000000000000000E+00  0.000000000000000E+00 -1.236732720120224E+02  1.236732720120225E+02  0.000000000000000E+00  0.000000E+00  9.0000E+00
   -11     1     1     2     0     0  3.374008691468715E+01 -7.917332208139390E+00  1.829064685668342E+01  3.918705623979157E+01  0.000000000000000E+00  0.000000E+00  9.0000E+00
    12     1     1     2     0     0 -3.714051685063074E+01 -3.640249812302440E+01  5.605581541079826E+01  7.646446431446614E+01  0.000000000000000E+00  0.000000E+00  9.0000E+00
    13     1     1     2     0     0  3.079170442131859E+01 -3.941505329525376E+01  8.869548064906135E+01  1.018261448499626E+02  0.000000000000000E+00  0.000000E+00  9.0000E+00
   -14     1     1     2     0     0 -2.352624503050622E+01  7.825993925774931E+00  4.629479989312818E+00  2.522226141988725E+01  0.000000000000000E+00  0.000000E+00  9.0000E+00
     5     1     1     2   102     0 -5.211188963291008E+01  7.628627030072514E+01  3.435146865835256E+01  9.856605641139184E+01  0.000000000000000E+00  0.000000E+00  9.0000E+00
    -5     1     1     2     0   101  4.824686017804130E+01 -3.773806000825175E-01 -4.328471604629998E+01  6.481873630645389E+01  0.000000000000000E+00  0.000000E+00  9.0000E+00
# pdf  4.344791500460473E-02  1.902665723261883E-02  1.732000000000000E+02
# me  4  2  2.86040079998026E-08  4  3  1.11317581327052E-08 -1.401388339243099E-07  2.81411591692721E-08 -1.306383077605601E-09
</event>
<event>
     8    81  1.352814903425456E+00  1.732000000000000E+02  7.562391098139707E-03  1.076105351933744E-01
     1    -1     0     0   102     0  0.000000000000000E+00  0.000000000000000E+00  8.017379208621296E+02  8.017379208621298E+02  0.000000000000000E+00  0.000000E+00  9.0000E+00
    -1    -1     0     0     0   101  0.000000000000000E+00  0.000000000000000E+00 -3.859032964774428E+01  3.859032964774421E+01  0.000000000000000E+00  0.000000E+00  9.0000E+00
   -11     1     1     2     0     0  4.273498289282529E+01  1.924570134394394E+00  3.028560096889634E+01  5.241374208258257E+01  0.000000000000000E+00  0.000000E+00  9.0000E+00
    12     1     1     2     0     0 -2.550964052264720E+01  4.238083942942888E+01  5.133393594832530E+01  7.128850040703958E+01  0.000000000000000E+00  0.000000E+00  9.0000E+00
    13     1     1     2     0     0 -3.636310759713961E+01 -6.472519137538111E+00  1.138743990224998E+02  1.197144429500570E+02  0.000000000000000E+00  0.000000E+00  9.0000E+00
   -14     1     1     2     0     0  1.307318619817671E+00  6.456078242805317E+01  2.534410785419723E+02  2.615381119497009E+02  0.000000000000000E+00  0.000000E+00  9.0000E+00
     5     1     1     2   102     0 -2.703419517820809E+00 -4.450485417726775E+01  2.075889358247525E+02  2.123232365976047E+02  0.000000000000000E+00  0.000000E+00  9.0000E+00
    -5     1     1     2     0   101  2.053386612496465E+01 -5.788881867707058E+01  1.066236409079391E+02  1.230502165228890E+02  0.000000000000000E+00  0.000000E+00  9.0000E+00
# pdf  1.233442955172507E-01  5.936973791960654E-03  1.732000000000000E+02
# me  4  2  1.583038295000234E-09  4  3  5.58519503169306E-10 -7.243951713504758E-09  1.502195433740882E-09 -7.229946376060094E-11
</event>
<event>
     8    81  2.497691452379054E-01  1.732000000000000E+02  7.562391098139707E-03  1.076105351933744E-01
     1    -1     0     0   102     0  0.000000000000000E+00  0.000000000000000E+00  4.224896735855629E+02  4.224896735855630E+02  0.000000000000000E+00  0.000000E+00  9.0000E+00
    -1    -1     0     0     0   101  0.000000000000000E+00  0.000000000000000E+00 -9.817780136116218E+01  9.817780136116222E+01  0.000000000000000E+00  0.000000E+00  9.0000E+00
   -11     1     1     2     0     0 -2.266895887481689E+01 -2.993347683424481E+01  9.452508799950800E+01  1.017098175849762E+02  0.000000000000000E+00  0.000000E+00  9.0000E+00
    12     1     1     2     0     0 -4.070755417450985E+01 -2.661187794388135E+01  1.673142479820839E-01  4.863460710880959E+01  0.000000000000000E+00  0.000000E+00  9.0000E+00
    13     1     1     2     0     0  4.414745487365169E+01  3.263286547748276E+01  1.334608126272785E+01  5.649796072571058E+01  0.000000000000000E+00  0.000000E+00  9.0000E+00
   -14     1     1     2     0     0  8.607846706124256E+00 -1.215232267613684E+01  7.734292848793280E+01  7.876358650055603E+01  0.000000000000000E+00  0.000000E+00  9.0000E+00
     5     1     1     2   102     0  4.664646349529079E+01 -2.152172154321548E+01  1.566527405978949E+02  1.648610269033666E+02  0.000000000000000E+00  0.000000E+00  9.0000E+00
    -5     1     1     2     0   101 -3.602525202574000E+01  5.758653351999573E+01 -1.772228037164496E+01  7.020047612330607E+01  0.000000000000000E+00  0.000000E+00  9.0000E+00
# pdf  6.499841132085583E-02  1.510427713248649E-02  1.732000000000000E+02
# me  4  2  3.442103242193784E-07  4  3 -2.582372057570420E-07 -1.578849696736529E-06  2.901656007782887E-07 -1.572054317354247E-08
</event>
</LesHouchesEvents>
